
FAST Summary File

Predictions were generated on 05-Aug-2020 at 14:42:55 using OpenFAST, compiled as a 64-bit application using double precision at commit v2.3.0-dirty
  compiled with
    NWTC Subroutine Library
    ElastoDyn
    BeamDyn [not called]
    InflowWind
    AeroDyn14 [not called]
    AeroDyn
    ServoDyn
    HydroDyn
    SubDyn
    ExtPtfm_MCKF [not called]
    MAP [not called]
    FEAMooring [not called]
    MoorDyn [not called]
    OrcaFlexInterface [not called]
    IceFloe [not called]
    IceDyn [not called]


Modeling a fixed-bottom offshore turbine
Description from the FAST input file: 
  IEA 15 MW offshore reference model monopile configuration

Interpolation order for input/output time histories: 2 (quadratic)
Number of correction iterations:  0
Number of rows in Jacobian matrix used for coupling ElastoDyn, SubDyn, HydroDyn, OrcaFlex, ExtPtfm_MCKF, and/or BeamDyn:    738


   Requested Time Steps  
  -------------------------------------------------
  Component          Time Step (s)    Subcycles (-)
  -----------------  ---------------  -------------
  FAST (glue code)    1.000E-02
  InflowWind          1.000E-02              1
  ElastoDyn           1.000E-02              1
  AeroDyn             1.000E-02              1
  ServoDyn            1.000E-02              1
  HydroDyn            1.000E-02              1
  SubDyn              1.000E-02              1
  FAST output files   1.000E-02              1


   Requested Channels in FAST Output File(s)  
  --------------------------------------------
  Number  Name        Units       Generated by
  ------  ----------  ----------  ------------
       1  Time        (s)         OpenFAST
       2  Wind1VelX   (m/s)       InflowWind
       3  Azimuth     (deg)       ElastoDyn
       4  BldPitch1   (deg)       ElastoDyn
       5  GenSpeed    (rpm)       ElastoDyn
       6  IPDefl1     (m)         ElastoDyn
       7  LSSGagMya   (kN-m)      ElastoDyn
       8  LSSGagMza   (kN-m)      ElastoDyn
       9  OoPDefl1    (m)         ElastoDyn
      10  PtfmPitch   (deg)       ElastoDyn
      11  PtfmRoll    (deg)       ElastoDyn
      12  PtfmSurge   (m)         ElastoDyn
      13  PtfmSway    (m)         ElastoDyn
      14  RootFxc1    (kN)        ElastoDyn
      15  RootFyc1    (kN)        ElastoDyn
      16  RootFzc1    (kN)        ElastoDyn
      17  RootMxc1    (kN-m)      ElastoDyn
      18  RootMyc1    (kN-m)      ElastoDyn
      19  RootMzc1    (kN-m)      ElastoDyn
      20  RotSpeed    (rpm)       ElastoDyn
      21  RotTorq     (kN-m)      ElastoDyn
      22  Spn2MLxb1   (kN-m)      ElastoDyn
      23  Spn2MLyb1   (kN-m)      ElastoDyn
      24  TTDspTwst   (deg)       ElastoDyn
      25  TwHt1TPxi   (m)         ElastoDyn
      26  TwHt1TPyi   (m)         ElastoDyn
      27  TwstDefl1   (deg)       ElastoDyn
      28  YawBrFxp    (kN)        ElastoDyn
      29  YawBrFyp    (kN)        ElastoDyn
      30  YawBrFzp    (kN)        ElastoDyn
      31  YawBrMxp    (kN-m)      ElastoDyn
      32  YawBrMyp    (kN-m)      ElastoDyn
      33  YawBrMzp    (kN-m)      ElastoDyn
      34  RtAeroFxh   (N)         AeroDyn
      35  RtAeroFyh   (N)         AeroDyn
      36  RtAeroFzh   (N)         AeroDyn
      37  RtAeroMxh   (N-m)       AeroDyn
      38  RtAeroMyh   (N-m)       AeroDyn
      39  RtAeroMzh   (N-m)       AeroDyn
      40  RtVAvgxh    (m/s)       AeroDyn
      41  RtAeroCp    (-)         AeroDyn
      42  RtTSR       (-)         AeroDyn
      43  GenPwr      (kW)        ServoDyn
      44  GenTq       (kN-m)      ServoDyn
      45  Wave1Elev   (m)         HydroDyn
      46  M2N1MKxe    (N*m)       SubDyn
      47  M2N1MKye    (N*m)       SubDyn
      48  M1N1MKxe    (N*m)       SubDyn
      49  M1N1MKye    (N*m)       SubDyn
      50  -ReactFXss  (N)         SubDyn
      51  -ReactFYss  (N)         SubDyn
      52  -ReactFZss  (N)         SubDyn
      53  -ReactMXss  (Nm)        SubDyn
      54  -ReactMYss  (Nm)        SubDyn
      55  -ReactMZss  (Nm)        SubDyn
